n -t 0 -s 0 -S DLABEL -l "sender mobile node" -L ""
n -t 0 -s 2 -S DLABEL -l "base station 1" -L ""
n -t 0 -s 1 -S DLABEL -l "mobile station" -L ""
n -t 0 -s 3 -S DLABEL -l "base station 2" -L ""
n -t 0 -s 4 -S DLABEL -l "destination mobile node" -L ""
V -t * -v 1.0a5 -a 0
A -t * -n 1 -p 0 -o 0x7fffffff -c 30 -a 1
A -t * -h 1 -m 1073741823 -s 0
c -t * -i 1 -n red
c -t * -i 2 -n blue
n -t * -a 4 -s 4 -S UP -v circle -c red -i red
n -t * -a 0 -s 0 -S UP -v circle -c green -i green
n -t * -a 1 -s 1 -S UP -v circle -c black -i black
n -t * -a 2 -s 2 -S UP -v circle -c black -i black
n -t * -a 3 -s 3 -S UP -v circle -c black -i black
l -t * -s 0 -d 2 -S UP -r 3000000 -D 0.01 -c black
l -t * -s 2 -d 1 -S UP -r 384000 -D 0.14999999999999999 -c black
l -t * -s 1 -d 3 -S UP -r 64000 -D 0.14999999999999999 -c black
l -t * -s 3 -d 4 -S UP -r 3000000 -D 0.050000000000000003 -c black
+ -t 0 -s 0 -d 2 -p tcp -e 40 -c 0 -i 0 -a 0 -x {0.0 4.0 0 ------- null}
- -t 0 -s 0 -d 2 -p tcp -e 40 -c 0 -i 0 -a 0 -x {0.0 4.0 0 ------- null}
h -t 0 -s 0 -d 2 -p tcp -e 40 -c 0 -i 0 -a 0 -x {0.0 4.0 -1 ------- null}
r -t 0.0101066666666667 -s 0 -d 2 -p tcp -e 40 -c 0 -i 0 -a 0 -x {0.0 4.0 0 ------- null}
+ -t 0.0101066666666667 -s 2 -d 1 -p tcp -e 40 -c 0 -i 0 -a 0 -x {0.0 4.0 0 ------- null}
- -t 0.0101066666666667 -s 2 -d 1 -p tcp -e 40 -c 0 -i 0 -a 0 -x {0.0 4.0 0 ------- null}
h -t 0.0101066666666667 -s 2 -d 1 -p tcp -e 40 -c 0 -i 0 -a 0 -x {0.0 4.0 -1 ------- null}
r -t 0.16094 -s 2 -d 1 -p tcp -e 40 -c 0 -i 0 -a 0 -x {0.0 4.0 0 ------- null}
+ -t 0.16094 -s 1 -d 3 -p tcp -e 40 -c 0 -i 0 -a 0 -x {0.0 4.0 0 ------- null}
- -t 0.16094 -s 1 -d 3 -p tcp -e 40 -c 0 -i 0 -a 0 -x {0.0 4.0 0 ------- null}
h -t 0.16094 -s 1 -d 3 -p tcp -e 40 -c 0 -i 0 -a 0 -x {0.0 4.0 -1 ------- null}
r -t 0.31594 -s 1 -d 3 -p tcp -e 40 -c 0 -i 0 -a 0 -x {0.0 4.0 0 ------- null}
+ -t 0.31594 -s 3 -d 4 -p tcp -e 40 -c 0 -i 0 -a 0 -x {0.0 4.0 0 ------- null}
- -t 0.31594 -s 3 -d 4 -p tcp -e 40 -c 0 -i 0 -a 0 -x {0.0 4.0 0 ------- null}
h -t 0.31594 -s 3 -d 4 -p tcp -e 40 -c 0 -i 0 -a 0 -x {0.0 4.0 -1 ------- null}
r -t 0.366046666666667 -s 3 -d 4 -p tcp -e 40 -c 0 -i 0 -a 0 -x {0.0 4.0 0 ------- null}
+ -t 0.366046666666667 -s 4 -d 3 -p ack -e 40 -c 0 -i 1 -a 0 -x {4.0 0.0 0 ------- null}
- -t 0.366046666666667 -s 4 -d 3 -p ack -e 40 -c 0 -i 1 -a 0 -x {4.0 0.0 0 ------- null}
h -t 0.366046666666667 -s 4 -d 3 -p ack -e 40 -c 0 -i 1 -a 0 -x {4.0 0.0 -1 ------- null}
r -t 0.416153333333333 -s 4 -d 3 -p ack -e 40 -c 0 -i 1 -a 0 -x {4.0 0.0 0 ------- null}
+ -t 0.416153333333333 -s 3 -d 1 -p ack -e 40 -c 0 -i 1 -a 0 -x {4.0 0.0 0 ------- null}
- -t 0.416153333333333 -s 3 -d 1 -p ack -e 40 -c 0 -i 1 -a 0 -x {4.0 0.0 0 ------- null}
h -t 0.416153333333333 -s 3 -d 1 -p ack -e 40 -c 0 -i 1 -a 0 -x {4.0 0.0 -1 ------- null}
r -t 0.566986666666667 -s 3 -d 1 -p ack -e 40 -c 0 -i 1 -a 0 -x {4.0 0.0 0 ------- null}
+ -t 0.566986666666667 -s 1 -d 2 -p ack -e 40 -c 0 -i 1 -a 0 -x {4.0 0.0 0 ------- null}
- -t 0.566986666666667 -s 1 -d 2 -p ack -e 40 -c 0 -i 1 -a 0 -x {4.0 0.0 0 ------- null}
h -t 0.566986666666667 -s 1 -d 2 -p ack -e 40 -c 0 -i 1 -a 0 -x {4.0 0.0 -1 ------- null}
r -t 0.721986666666667 -s 1 -d 2 -p ack -e 40 -c 0 -i 1 -a 0 -x {4.0 0.0 0 ------- null}
+ -t 0.721986666666667 -s 2 -d 0 -p ack -e 40 -c 0 -i 1 -a 0 -x {4.0 0.0 0 ------- null}
- -t 0.721986666666667 -s 2 -d 0 -p ack -e 40 -c 0 -i 1 -a 0 -x {4.0 0.0 0 ------- null}
h -t 0.721986666666667 -s 2 -d 0 -p ack -e 40 -c 0 -i 1 -a 0 -x {4.0 0.0 -1 ------- null}
r -t 0.732093333333333 -s 2 -d 0 -p ack -e 40 -c 0 -i 1 -a 0 -x {4.0 0.0 0 ------- null}
+ -t 0.732093333333333 -s 0 -d 2 -p tcp -e 1040 -c 0 -i 2 -a 0 -x {0.0 4.0 1 ------- null}
- -t 0.732093333333333 -s 0 -d 2 -p tcp -e 1040 -c 0 -i 2 -a 0 -x {0.0 4.0 1 ------- null}
h -t 0.732093333333333 -s 0 -d 2 -p tcp -e 1040 -c 0 -i 2 -a 0 -x {0.0 4.0 -1 ------- null}
+ -t 0.732093333333333 -s 0 -d 2 -p tcp -e 1040 -c 0 -i 3 -a 0 -x {0.0 4.0 2 ------- null}
- -t 0.734866666666667 -s 0 -d 2 -p tcp -e 1040 -c 0 -i 3 -a 0 -x {0.0 4.0 2 ------- null}
h -t 0.734866666666667 -s 0 -d 2 -p tcp -e 1040 -c 0 -i 3 -a 0 -x {0.0 4.0 -1 ------- null}
r -t 0.744866666666667 -s 0 -d 2 -p tcp -e 1040 -c 0 -i 2 -a 0 -x {0.0 4.0 1 ------- null}
+ -t 0.744866666666667 -s 2 -d 1 -p tcp -e 1040 -c 0 -i 2 -a 0 -x {0.0 4.0 1 ------- null}
- -t 0.744866666666667 -s 2 -d 1 -p tcp -e 1040 -c 0 -i 2 -a 0 -x {0.0 4.0 1 ------- null}
h -t 0.744866666666667 -s 2 -d 1 -p tcp -e 1040 -c 0 -i 2 -a 0 -x {0.0 4.0 -1 ------- null}
r -t 0.74764 -s 0 -d 2 -p tcp -e 1040 -c 0 -i 3 -a 0 -x {0.0 4.0 2 ------- null}
+ -t 0.74764 -s 2 -d 1 -p tcp -e 1040 -c 0 -i 3 -a 0 -x {0.0 4.0 2 ------- null}
- -t 0.766533333333334 -s 2 -d 1 -p tcp -e 1040 -c 0 -i 3 -a 0 -x {0.0 4.0 2 ------- null}
h -t 0.766533333333334 -s 2 -d 1 -p tcp -e 1040 -c 0 -i 3 -a 0 -x {0.0 4.0 -1 ------- null}
r -t 0.916533333333333 -s 2 -d 1 -p tcp -e 1040 -c 0 -i 2 -a 0 -x {0.0 4.0 1 ------- null}
+ -t 0.916533333333333 -s 1 -d 3 -p tcp -e 1040 -c 0 -i 2 -a 0 -x {0.0 4.0 1 ------- null}
- -t 0.916533333333333 -s 1 -d 3 -p tcp -e 1040 -c 0 -i 2 -a 0 -x {0.0 4.0 1 ------- null}
h -t 0.916533333333333 -s 1 -d 3 -p tcp -e 1040 -c 0 -i 2 -a 0 -x {0.0 4.0 -1 ------- null}
r -t 0.9382 -s 2 -d 1 -p tcp -e 1040 -c 0 -i 3 -a 0 -x {0.0 4.0 2 ------- null}
+ -t 0.9382 -s 1 -d 3 -p tcp -e 1040 -c 0 -i 3 -a 0 -x {0.0 4.0 2 ------- null}
- -t 1.04653333333333 -s 1 -d 3 -p tcp -e 1040 -c 0 -i 3 -a 0 -x {0.0 4.0 2 ------- null}
h -t 1.04653333333333 -s 1 -d 3 -p tcp -e 1040 -c 0 -i 3 -a 0 -x {0.0 4.0 -1 ------- null}
r -t 1.19653333333333 -s 1 -d 3 -p tcp -e 1040 -c 0 -i 2 -a 0 -x {0.0 4.0 1 ------- null}
+ -t 1.19653333333333 -s 3 -d 4 -p tcp -e 1040 -c 0 -i 2 -a 0 -x {0.0 4.0 1 ------- null}
- -t 1.19653333333333 -s 3 -d 4 -p tcp -e 1040 -c 0 -i 2 -a 0 -x {0.0 4.0 1 ------- null}
h -t 1.19653333333333 -s 3 -d 4 -p tcp -e 1040 -c 0 -i 2 -a 0 -x {0.0 4.0 -1 ------- null}
r -t 1.24930666666667 -s 3 -d 4 -p tcp -e 1040 -c 0 -i 2 -a 0 -x {0.0 4.0 1 ------- null}
+ -t 1.24930666666667 -s 4 -d 3 -p ack -e 40 -c 0 -i 4 -a 0 -x {4.0 0.0 1 ------- null}
- -t 1.24930666666667 -s 4 -d 3 -p ack -e 40 -c 0 -i 4 -a 0 -x {4.0 0.0 1 ------- null}
h -t 1.24930666666667 -s 4 -d 3 -p ack -e 40 -c 0 -i 4 -a 0 -x {4.0 0.0 -1 ------- null}
r -t 1.29941333333333 -s 4 -d 3 -p ack -e 40 -c 0 -i 4 -a 0 -x {4.0 0.0 1 ------- null}
+ -t 1.29941333333333 -s 3 -d 1 -p ack -e 40 -c 0 -i 4 -a 0 -x {4.0 0.0 1 ------- null}
- -t 1.29941333333333 -s 3 -d 1 -p ack -e 40 -c 0 -i 4 -a 0 -x {4.0 0.0 1 ------- null}
h -t 1.29941333333333 -s 3 -d 1 -p ack -e 40 -c 0 -i 4 -a 0 -x {4.0 0.0 -1 ------- null}
r -t 1.32653333333333 -s 1 -d 3 -p tcp -e 1040 -c 0 -i 3 -a 0 -x {0.0 4.0 2 ------- null}
+ -t 1.32653333333333 -s 3 -d 4 -p tcp -e 1040 -c 0 -i 3 -a 0 -x {0.0 4.0 2 ------- null}
- -t 1.32653333333333 -s 3 -d 4 -p tcp -e 1040 -c 0 -i 3 -a 0 -x {0.0 4.0 2 ------- null}
h -t 1.32653333333333 -s 3 -d 4 -p tcp -e 1040 -c 0 -i 3 -a 0 -x {0.0 4.0 -1 ------- null}
r -t 1.37930666666667 -s 3 -d 4 -p tcp -e 1040 -c 0 -i 3 -a 0 -x {0.0 4.0 2 ------- null}
+ -t 1.37930666666667 -s 4 -d 3 -p ack -e 40 -c 0 -i 5 -a 0 -x {4.0 0.0 2 ------- null}
- -t 1.37930666666667 -s 4 -d 3 -p ack -e 40 -c 0 -i 5 -a 0 -x {4.0 0.0 2 ------- null}
h -t 1.37930666666667 -s 4 -d 3 -p ack -e 40 -c 0 -i 5 -a 0 -x {4.0 0.0 -1 ------- null}
r -t 1.42941333333333 -s 4 -d 3 -p ack -e 40 -c 0 -i 5 -a 0 -x {4.0 0.0 2 ------- null}
+ -t 1.42941333333333 -s 3 -d 1 -p ack -e 40 -c 0 -i 5 -a 0 -x {4.0 0.0 2 ------- null}
- -t 1.42941333333333 -s 3 -d 1 -p ack -e 40 -c 0 -i 5 -a 0 -x {4.0 0.0 2 ------- null}
h -t 1.42941333333333 -s 3 -d 1 -p ack -e 40 -c 0 -i 5 -a 0 -x {4.0 0.0 -1 ------- null}
r -t 1.45024666666667 -s 3 -d 1 -p ack -e 40 -c 0 -i 4 -a 0 -x {4.0 0.0 1 ------- null}
+ -t 1.45024666666667 -s 1 -d 2 -p ack -e 40 -c 0 -i 4 -a 0 -x {4.0 0.0 1 ------- null}
- -t 1.45024666666667 -s 1 -d 2 -p ack -e 40 -c 0 -i 4 -a 0 -x {4.0 0.0 1 ------- null}
h -t 1.45024666666667 -s 1 -d 2 -p ack -e 40 -c 0 -i 4 -a 0 -x {4.0 0.0 -1 ------- null}
r -t 1.58024666666667 -s 3 -d 1 -p ack -e 40 -c 0 -i 5 -a 0 -x {4.0 0.0 2 ------- null}
+ -t 1.58024666666667 -s 1 -d 2 -p ack -e 40 -c 0 -i 5 -a 0 -x {4.0 0.0 2 ------- null}
- -t 1.58024666666667 -s 1 -d 2 -p ack -e 40 -c 0 -i 5 -a 0 -x {4.0 0.0 2 ------- null}
h -t 1.58024666666667 -s 1 -d 2 -p ack -e 40 -c 0 -i 5 -a 0 -x {4.0 0.0 -1 ------- null}
r -t 1.60524666666667 -s 1 -d 2 -p ack -e 40 -c 0 -i 4 -a 0 -x {4.0 0.0 1 ------- null}
+ -t 1.60524666666667 -s 2 -d 0 -p ack -e 40 -c 0 -i 4 -a 0 -x {4.0 0.0 1 ------- null}
- -t 1.60524666666667 -s 2 -d 0 -p ack -e 40 -c 0 -i 4 -a 0 -x {4.0 0.0 1 ------- null}
h -t 1.60524666666667 -s 2 -d 0 -p ack -e 40 -c 0 -i 4 -a 0 -x {4.0 0.0 -1 ------- null}
r -t 1.61535333333333 -s 2 -d 0 -p ack -e 40 -c 0 -i 4 -a 0 -x {4.0 0.0 1 ------- null}
+ -t 1.61535333333333 -s 0 -d 2 -p tcp -e 1040 -c 0 -i 6 -a 0 -x {0.0 4.0 3 ------- null}
- -t 1.61535333333333 -s 0 -d 2 -p tcp -e 1040 -c 0 -i 6 -a 0 -x {0.0 4.0 3 ------- null}
h -t 1.61535333333333 -s 0 -d 2 -p tcp -e 1040 -c 0 -i 6 -a 0 -x {0.0 4.0 -1 ------- null}
+ -t 1.61535333333333 -s 0 -d 2 -p tcp -e 1040 -c 0 -i 7 -a 0 -x {0.0 4.0 4 ------- null}
- -t 1.61812666666667 -s 0 -d 2 -p tcp -e 1040 -c 0 -i 7 -a 0 -x {0.0 4.0 4 ------- null}
h -t 1.61812666666667 -s 0 -d 2 -p tcp -e 1040 -c 0 -i 7 -a 0 -x {0.0 4.0 -1 ------- null}
r -t 1.62812666666667 -s 0 -d 2 -p tcp -e 1040 -c 0 -i 6 -a 0 -x {0.0 4.0 3 ------- null}
+ -t 1.62812666666667 -s 2 -d 1 -p tcp -e 1040 -c 0 -i 6 -a 0 -x {0.0 4.0 3 ------- null}
- -t 1.62812666666667 -s 2 -d 1 -p tcp -e 1040 -c 0 -i 6 -a 0 -x {0.0 4.0 3 ------- null}
h -t 1.62812666666667 -s 2 -d 1 -p tcp -e 1040 -c 0 -i 6 -a 0 -x {0.0 4.0 -1 ------- null}
r -t 1.6309 -s 0 -d 2 -p tcp -e 1040 -c 0 -i 7 -a 0 -x {0.0 4.0 4 ------- null}
+ -t 1.6309 -s 2 -d 1 -p tcp -e 1040 -c 0 -i 7 -a 0 -x {0.0 4.0 4 ------- null}
- -t 1.64979333333333 -s 2 -d 1 -p tcp -e 1040 -c 0 -i 7 -a 0 -x {0.0 4.0 4 ------- null}
h -t 1.64979333333333 -s 2 -d 1 -p tcp -e 1040 -c 0 -i 7 -a 0 -x {0.0 4.0 -1 ------- null}
r -t 1.73524666666667 -s 1 -d 2 -p ack -e 40 -c 0 -i 5 -a 0 -x {4.0 0.0 2 ------- null}
+ -t 1.73524666666667 -s 2 -d 0 -p ack -e 40 -c 0 -i 5 -a 0 -x {4.0 0.0 2 ------- null}
- -t 1.73524666666667 -s 2 -d 0 -p ack -e 40 -c 0 -i 5 -a 0 -x {4.0 0.0 2 ------- null}
h -t 1.73524666666667 -s 2 -d 0 -p ack -e 40 -c 0 -i 5 -a 0 -x {4.0 0.0 -1 ------- null}
r -t 1.74535333333333 -s 2 -d 0 -p ack -e 40 -c 0 -i 5 -a 0 -x {4.0 0.0 2 ------- null}
+ -t 1.74535333333333 -s 0 -d 2 -p tcp -e 1040 -c 0 -i 8 -a 0 -x {0.0 4.0 5 ------- null}
- -t 1.74535333333333 -s 0 -d 2 -p tcp -e 1040 -c 0 -i 8 -a 0 -x {0.0 4.0 5 ------- null}
h -t 1.74535333333333 -s 0 -d 2 -p tcp -e 1040 -c 0 -i 8 -a 0 -x {0.0 4.0 -1 ------- null}
+ -t 1.74535333333333 -s 0 -d 2 -p tcp -e 1040 -c 0 -i 9 -a 0 -x {0.0 4.0 6 ------- null}
- -t 1.74812666666667 -s 0 -d 2 -p tcp -e 1040 -c 0 -i 9 -a 0 -x {0.0 4.0 6 ------- null}
h -t 1.74812666666667 -s 0 -d 2 -p tcp -e 1040 -c 0 -i 9 -a 0 -x {0.0 4.0 -1 ------- null}
r -t 1.75812666666667 -s 0 -d 2 -p tcp -e 1040 -c 0 -i 8 -a 0 -x {0.0 4.0 5 ------- null}
+ -t 1.75812666666667 -s 2 -d 1 -p tcp -e 1040 -c 0 -i 8 -a 0 -x {0.0 4.0 5 ------- null}
- -t 1.75812666666667 -s 2 -d 1 -p tcp -e 1040 -c 0 -i 8 -a 0 -x {0.0 4.0 5 ------- null}
h -t 1.75812666666667 -s 2 -d 1 -p tcp -e 1040 -c 0 -i 8 -a 0 -x {0.0 4.0 -1 ------- null}
r -t 1.7609 -s 0 -d 2 -p tcp -e 1040 -c 0 -i 9 -a 0 -x {0.0 4.0 6 ------- null}
+ -t 1.7609 -s 2 -d 1 -p tcp -e 1040 -c 0 -i 9 -a 0 -x {0.0 4.0 6 ------- null}
- -t 1.77979333333333 -s 2 -d 1 -p tcp -e 1040 -c 0 -i 9 -a 0 -x {0.0 4.0 6 ------- null}
h -t 1.77979333333333 -s 2 -d 1 -p tcp -e 1040 -c 0 -i 9 -a 0 -x {0.0 4.0 -1 ------- null}
r -t 1.79979333333333 -s 2 -d 1 -p tcp -e 1040 -c 0 -i 6 -a 0 -x {0.0 4.0 3 ------- null}
+ -t 1.79979333333333 -s 1 -d 3 -p tcp -e 1040 -c 0 -i 6 -a 0 -x {0.0 4.0 3 ------- null}
- -t 1.79979333333333 -s 1 -d 3 -p tcp -e 1040 -c 0 -i 6 -a 0 -x {0.0 4.0 3 ------- null}
h -t 1.79979333333333 -s 1 -d 3 -p tcp -e 1040 -c 0 -i 6 -a 0 -x {0.0 4.0 -1 ------- null}
r -t 1.82146 -s 2 -d 1 -p tcp -e 1040 -c 0 -i 7 -a 0 -x {0.0 4.0 4 ------- null}
+ -t 1.82146 -s 1 -d 3 -p tcp -e 1040 -c 0 -i 7 -a 0 -x {0.0 4.0 4 ------- null}
- -t 1.92979333333333 -s 1 -d 3 -p tcp -e 1040 -c 0 -i 7 -a 0 -x {0.0 4.0 4 ------- null}
h -t 1.92979333333333 -s 1 -d 3 -p tcp -e 1040 -c 0 -i 7 -a 0 -x {0.0 4.0 -1 ------- null}
r -t 1.92979333333333 -s 2 -d 1 -p tcp -e 1040 -c 0 -i 8 -a 0 -x {0.0 4.0 5 ------- null}
+ -t 1.92979333333333 -s 1 -d 3 -p tcp -e 1040 -c 0 -i 8 -a 0 -x {0.0 4.0 5 ------- null}
r -t 1.95146 -s 2 -d 1 -p tcp -e 1040 -c 0 -i 9 -a 0 -x {0.0 4.0 6 ------- null}
+ -t 1.95146 -s 1 -d 3 -p tcp -e 1040 -c 0 -i 9 -a 0 -x {0.0 4.0 6 ------- null}
- -t 2.05979333333333 -s 1 -d 3 -p tcp -e 1040 -c 0 -i 8 -a 0 -x {0.0 4.0 5 ------- null}
h -t 2.05979333333333 -s 1 -d 3 -p tcp -e 1040 -c 0 -i 8 -a 0 -x {0.0 4.0 -1 ------- null}
r -t 2.07979333333333 -s 1 -d 3 -p tcp -e 1040 -c 0 -i 6 -a 0 -x {0.0 4.0 3 ------- null}
+ -t 2.07979333333333 -s 3 -d 4 -p tcp -e 1040 -c 0 -i 6 -a 0 -x {0.0 4.0 3 ------- null}
- -t 2.07979333333333 -s 3 -d 4 -p tcp -e 1040 -c 0 -i 6 -a 0 -x {0.0 4.0 3 ------- null}
h -t 2.07979333333333 -s 3 -d 4 -p tcp -e 1040 -c 0 -i 6 -a 0 -x {0.0 4.0 -1 ------- null}
r -t 2.13256666666667 -s 3 -d 4 -p tcp -e 1040 -c 0 -i 6 -a 0 -x {0.0 4.0 3 ------- null}
+ -t 2.13256666666667 -s 4 -d 3 -p ack -e 40 -c 0 -i 10 -a 0 -x {4.0 0.0 3 ------- null}
- -t 2.13256666666667 -s 4 -d 3 -p ack -e 40 -c 0 -i 10 -a 0 -x {4.0 0.0 3 ------- null}
h -t 2.13256666666667 -s 4 -d 3 -p ack -e 40 -c 0 -i 10 -a 0 -x {4.0 0.0 -1 ------- null}
r -t 2.18267333333333 -s 4 -d 3 -p ack -e 40 -c 0 -i 10 -a 0 -x {4.0 0.0 3 ------- null}
+ -t 2.18267333333333 -s 3 -d 1 -p ack -e 40 -c 0 -i 10 -a 0 -x {4.0 0.0 3 ------- null}
- -t 2.18267333333333 -s 3 -d 1 -p ack -e 40 -c 0 -i 10 -a 0 -x {4.0 0.0 3 ------- null}
h -t 2.18267333333333 -s 3 -d 1 -p ack -e 40 -c 0 -i 10 -a 0 -x {4.0 0.0 -1 ------- null}
- -t 2.18979333333333 -s 1 -d 3 -p tcp -e 1040 -c 0 -i 9 -a 0 -x {0.0 4.0 6 ------- null}
h -t 2.18979333333333 -s 1 -d 3 -p tcp -e 1040 -c 0 -i 9 -a 0 -x {0.0 4.0 -1 ------- null}
r -t 2.20979333333333 -s 1 -d 3 -p tcp -e 1040 -c 0 -i 7 -a 0 -x {0.0 4.0 4 ------- null}
+ -t 2.20979333333333 -s 3 -d 4 -p tcp -e 1040 -c 0 -i 7 -a 0 -x {0.0 4.0 4 ------- null}
- -t 2.20979333333333 -s 3 -d 4 -p tcp -e 1040 -c 0 -i 7 -a 0 -x {0.0 4.0 4 ------- null}
h -t 2.20979333333333 -s 3 -d 4 -p tcp -e 1040 -c 0 -i 7 -a 0 -x {0.0 4.0 -1 ------- null}
r -t 2.26256666666667 -s 3 -d 4 -p tcp -e 1040 -c 0 -i 7 -a 0 -x {0.0 4.0 4 ------- null}
+ -t 2.26256666666667 -s 4 -d 3 -p ack -e 40 -c 0 -i 11 -a 0 -x {4.0 0.0 4 ------- null}
- -t 2.26256666666667 -s 4 -d 3 -p ack -e 40 -c 0 -i 11 -a 0 -x {4.0 0.0 4 ------- null}
h -t 2.26256666666667 -s 4 -d 3 -p ack -e 40 -c 0 -i 11 -a 0 -x {4.0 0.0 -1 ------- null}
r -t 2.31267333333333 -s 4 -d 3 -p ack -e 40 -c 0 -i 11 -a 0 -x {4.0 0.0 4 ------- null}
+ -t 2.31267333333333 -s 3 -d 1 -p ack -e 40 -c 0 -i 11 -a 0 -x {4.0 0.0 4 ------- null}
- -t 2.31267333333333 -s 3 -d 1 -p ack -e 40 -c 0 -i 11 -a 0 -x {4.0 0.0 4 ------- null}
h -t 2.31267333333333 -s 3 -d 1 -p ack -e 40 -c 0 -i 11 -a 0 -x {4.0 0.0 -1 ------- null}
r -t 2.33350666666667 -s 3 -d 1 -p ack -e 40 -c 0 -i 10 -a 0 -x {4.0 0.0 3 ------- null}
+ -t 2.33350666666667 -s 1 -d 2 -p ack -e 40 -c 0 -i 10 -a 0 -x {4.0 0.0 3 ------- null}
- -t 2.33350666666667 -s 1 -d 2 -p ack -e 40 -c 0 -i 10 -a 0 -x {4.0 0.0 3 ------- null}
h -t 2.33350666666667 -s 1 -d 2 -p ack -e 40 -c 0 -i 10 -a 0 -x {4.0 0.0 -1 ------- null}
r -t 2.33979333333333 -s 1 -d 3 -p tcp -e 1040 -c 0 -i 8 -a 0 -x {0.0 4.0 5 ------- null}
+ -t 2.33979333333333 -s 3 -d 4 -p tcp -e 1040 -c 0 -i 8 -a 0 -x {0.0 4.0 5 ------- null}
- -t 2.33979333333333 -s 3 -d 4 -p tcp -e 1040 -c 0 -i 8 -a 0 -x {0.0 4.0 5 ------- null}
h -t 2.33979333333333 -s 3 -d 4 -p tcp -e 1040 -c 0 -i 8 -a 0 -x {0.0 4.0 -1 ------- null}
r -t 2.39256666666667 -s 3 -d 4 -p tcp -e 1040 -c 0 -i 8 -a 0 -x {0.0 4.0 5 ------- null}
+ -t 2.39256666666667 -s 4 -d 3 -p ack -e 40 -c 0 -i 12 -a 0 -x {4.0 0.0 5 ------- null}
- -t 2.39256666666667 -s 4 -d 3 -p ack -e 40 -c 0 -i 12 -a 0 -x {4.0 0.0 5 ------- null}
h -t 2.39256666666667 -s 4 -d 3 -p ack -e 40 -c 0 -i 12 -a 0 -x {4.0 0.0 -1 ------- null}
r -t 2.44267333333333 -s 4 -d 3 -p ack -e 40 -c 0 -i 12 -a 0 -x {4.0 0.0 5 ------- null}
+ -t 2.44267333333333 -s 3 -d 1 -p ack -e 40 -c 0 -i 12 -a 0 -x {4.0 0.0 5 ------- null}
- -t 2.44267333333333 -s 3 -d 1 -p ack -e 40 -c 0 -i 12 -a 0 -x {4.0 0.0 5 ------- null}
h -t 2.44267333333333 -s 3 -d 1 -p ack -e 40 -c 0 -i 12 -a 0 -x {4.0 0.0 -1 ------- null}
r -t 2.46350666666667 -s 3 -d 1 -p ack -e 40 -c 0 -i 11 -a 0 -x {4.0 0.0 4 ------- null}
+ -t 2.46350666666667 -s 1 -d 2 -p ack -e 40 -c 0 -i 11 -a 0 -x {4.0 0.0 4 ------- null}
- -t 2.46350666666667 -s 1 -d 2 -p ack -e 40 -c 0 -i 11 -a 0 -x {4.0 0.0 4 ------- null}
h -t 2.46350666666667 -s 1 -d 2 -p ack -e 40 -c 0 -i 11 -a 0 -x {4.0 0.0 -1 ------- null}
r -t 2.46979333333333 -s 1 -d 3 -p tcp -e 1040 -c 0 -i 9 -a 0 -x {0.0 4.0 6 ------- null}
+ -t 2.46979333333333 -s 3 -d 4 -p tcp -e 1040 -c 0 -i 9 -a 0 -x {0.0 4.0 6 ------- null}
- -t 2.46979333333333 -s 3 -d 4 -p tcp -e 1040 -c 0 -i 9 -a 0 -x {0.0 4.0 6 ------- null}
h -t 2.46979333333333 -s 3 -d 4 -p tcp -e 1040 -c 0 -i 9 -a 0 -x {0.0 4.0 -1 ------- null}
r -t 2.48850666666667 -s 1 -d 2 -p ack -e 40 -c 0 -i 10 -a 0 -x {4.0 0.0 3 ------- null}
+ -t 2.48850666666667 -s 2 -d 0 -p ack -e 40 -c 0 -i 10 -a 0 -x {4.0 0.0 3 ------- null}
- -t 2.48850666666667 -s 2 -d 0 -p ack -e 40 -c 0 -i 10 -a 0 -x {4.0 0.0 3 ------- null}
h -t 2.48850666666667 -s 2 -d 0 -p ack -e 40 -c 0 -i 10 -a 0 -x {4.0 0.0 -1 ------- null}
r -t 2.49861333333333 -s 2 -d 0 -p ack -e 40 -c 0 -i 10 -a 0 -x {4.0 0.0 3 ------- null}
+ -t 2.49861333333333 -s 0 -d 2 -p tcp -e 1040 -c 0 -i 13 -a 0 -x {0.0 4.0 7 ------- null}
- -t 2.49861333333333 -s 0 -d 2 -p tcp -e 1040 -c 0 -i 13 -a 0 -x {0.0 4.0 7 ------- null}
h -t 2.49861333333333 -s 0 -d 2 -p tcp -e 1040 -c 0 -i 13 -a 0 -x {0.0 4.0 -1 ------- null}
+ -t 2.49861333333333 -s 0 -d 2 -p tcp -e 1040 -c 0 -i 14 -a 0 -x {0.0 4.0 8 ------- null}
- -t 2.50138666666667 -s 0 -d 2 -p tcp -e 1040 -c 0 -i 14 -a 0 -x {0.0 4.0 8 ------- null}
h -t 2.50138666666667 -s 0 -d 2 -p tcp -e 1040 -c 0 -i 14 -a 0 -x {0.0 4.0 -1 ------- null}
r -t 2.51138666666667 -s 0 -d 2 -p tcp -e 1040 -c 0 -i 13 -a 0 -x {0.0 4.0 7 ------- null}
+ -t 2.51138666666667 -s 2 -d 1 -p tcp -e 1040 -c 0 -i 13 -a 0 -x {0.0 4.0 7 ------- null}
- -t 2.51138666666667 -s 2 -d 1 -p tcp -e 1040 -c 0 -i 13 -a 0 -x {0.0 4.0 7 ------- null}
h -t 2.51138666666667 -s 2 -d 1 -p tcp -e 1040 -c 0 -i 13 -a 0 -x {0.0 4.0 -1 ------- null}
r -t 2.51416 -s 0 -d 2 -p tcp -e 1040 -c 0 -i 14 -a 0 -x {0.0 4.0 8 ------- null}
+ -t 2.51416 -s 2 -d 1 -p tcp -e 1040 -c 0 -i 14 -a 0 -x {0.0 4.0 8 ------- null}
r -t 2.52256666666667 -s 3 -d 4 -p tcp -e 1040 -c 0 -i 9 -a 0 -x {0.0 4.0 6 ------- null}
+ -t 2.52256666666667 -s 4 -d 3 -p ack -e 40 -c 0 -i 15 -a 0 -x {4.0 0.0 6 ------- null}
- -t 2.52256666666667 -s 4 -d 3 -p ack -e 40 -c 0 -i 15 -a 0 -x {4.0 0.0 6 ------- null}
h -t 2.52256666666667 -s 4 -d 3 -p ack -e 40 -c 0 -i 15 -a 0 -x {4.0 0.0 -1 ------- null}
- -t 2.53305333333333 -s 2 -d 1 -p tcp -e 1040 -c 0 -i 14 -a 0 -x {0.0 4.0 8 ------- null}
h -t 2.53305333333333 -s 2 -d 1 -p tcp -e 1040 -c 0 -i 14 -a 0 -x {0.0 4.0 -1 ------- null}
r -t 2.57267333333333 -s 4 -d 3 -p ack -e 40 -c 0 -i 15 -a 0 -x {4.0 0.0 6 ------- null}
+ -t 2.57267333333333 -s 3 -d 1 -p ack -e 40 -c 0 -i 15 -a 0 -x {4.0 0.0 6 ------- null}
- -t 2.57267333333333 -s 3 -d 1 -p ack -e 40 -c 0 -i 15 -a 0 -x {4.0 0.0 6 ------- null}
h -t 2.57267333333333 -s 3 -d 1 -p ack -e 40 -c 0 -i 15 -a 0 -x {4.0 0.0 -1 ------- null}
r -t 2.59350666666667 -s 3 -d 1 -p ack -e 40 -c 0 -i 12 -a 0 -x {4.0 0.0 5 ------- null}
+ -t 2.59350666666667 -s 1 -d 2 -p ack -e 40 -c 0 -i 12 -a 0 -x {4.0 0.0 5 ------- null}
- -t 2.59350666666667 -s 1 -d 2 -p ack -e 40 -c 0 -i 12 -a 0 -x {4.0 0.0 5 ------- null}
h -t 2.59350666666667 -s 1 -d 2 -p ack -e 40 -c 0 -i 12 -a 0 -x {4.0 0.0 -1 ------- null}
r -t 2.61850666666667 -s 1 -d 2 -p ack -e 40 -c 0 -i 11 -a 0 -x {4.0 0.0 4 ------- null}
+ -t 2.61850666666667 -s 2 -d 0 -p ack -e 40 -c 0 -i 11 -a 0 -x {4.0 0.0 4 ------- null}
- -t 2.61850666666667 -s 2 -d 0 -p ack -e 40 -c 0 -i 11 -a 0 -x {4.0 0.0 4 ------- null}
h -t 2.61850666666667 -s 2 -d 0 -p ack -e 40 -c 0 -i 11 -a 0 -x {4.0 0.0 -1 ------- null}
r -t 2.62861333333333 -s 2 -d 0 -p ack -e 40 -c 0 -i 11 -a 0 -x {4.0 0.0 4 ------- null}
+ -t 2.62861333333333 -s 0 -d 2 -p tcp -e 1040 -c 0 -i 16 -a 0 -x {0.0 4.0 9 ------- null}
- -t 2.62861333333333 -s 0 -d 2 -p tcp -e 1040 -c 0 -i 16 -a 0 -x {0.0 4.0 9 ------- null}
h -t 2.62861333333333 -s 0 -d 2 -p tcp -e 1040 -c 0 -i 16 -a 0 -x {0.0 4.0 -1 ------- null}
+ -t 2.62861333333333 -s 0 -d 2 -p tcp -e 1040 -c 0 -i 17 -a 0 -x {0.0 4.0 10 ------- null}
- -t 2.63138666666667 -s 0 -d 2 -p tcp -e 1040 -c 0 -i 17 -a 0 -x {0.0 4.0 10 ------- null}
h -t 2.63138666666667 -s 0 -d 2 -p tcp -e 1040 -c 0 -i 17 -a 0 -x {0.0 4.0 -1 ------- null}
r -t 2.64138666666667 -s 0 -d 2 -p tcp -e 1040 -c 0 -i 16 -a 0 -x {0.0 4.0 9 ------- null}
+ -t 2.64138666666667 -s 2 -d 1 -p tcp -e 1040 -c 0 -i 16 -a 0 -x {0.0 4.0 9 ------- null}
- -t 2.64138666666667 -s 2 -d 1 -p tcp -e 1040 -c 0 -i 16 -a 0 -x {0.0 4.0 9 ------- null}
h -t 2.64138666666667 -s 2 -d 1 -p tcp -e 1040 -c 0 -i 16 -a 0 -x {0.0 4.0 -1 ------- null}
r -t 2.64416 -s 0 -d 2 -p tcp -e 1040 -c 0 -i 17 -a 0 -x {0.0 4.0 10 ------- null}
+ -t 2.64416 -s 2 -d 1 -p tcp -e 1040 -c 0 -i 17 -a 0 -x {0.0 4.0 10 ------- null}
- -t 2.66305333333333 -s 2 -d 1 -p tcp -e 1040 -c 0 -i 17 -a 0 -x {0.0 4.0 10 ------- null}
h -t 2.66305333333333 -s 2 -d 1 -p tcp -e 1040 -c 0 -i 17 -a 0 -x {0.0 4.0 -1 ------- null}
r -t 2.68305333333333 -s 2 -d 1 -p tcp -e 1040 -c 0 -i 13 -a 0 -x {0.0 4.0 7 ------- null}
+ -t 2.68305333333333 -s 1 -d 3 -p tcp -e 1040 -c 0 -i 13 -a 0 -x {0.0 4.0 7 ------- null}
- -t 2.68305333333333 -s 1 -d 3 -p tcp -e 1040 -c 0 -i 13 -a 0 -x {0.0 4.0 7 ------- null}
h -t 2.68305333333333 -s 1 -d 3 -p tcp -e 1040 -c 0 -i 13 -a 0 -x {0.0 4.0 -1 ------- null}
r -t 2.70472 -s 2 -d 1 -p tcp -e 1040 -c 0 -i 14 -a 0 -x {0.0 4.0 8 ------- null}
+ -t 2.70472 -s 1 -d 3 -p tcp -e 1040 -c 0 -i 14 -a 0 -x {0.0 4.0 8 ------- null}
r -t 2.72350666666667 -s 3 -d 1 -p ack -e 40 -c 0 -i 15 -a 0 -x {4.0 0.0 6 ------- null}
+ -t 2.72350666666667 -s 1 -d 2 -p ack -e 40 -c 0 -i 15 -a 0 -x {4.0 0.0 6 ------- null}
- -t 2.72350666666667 -s 1 -d 2 -p ack -e 40 -c 0 -i 15 -a 0 -x {4.0 0.0 6 ------- null}
h -t 2.72350666666667 -s 1 -d 2 -p ack -e 40 -c 0 -i 15 -a 0 -x {4.0 0.0 -1 ------- null}
r -t 2.74850666666667 -s 1 -d 2 -p ack -e 40 -c 0 -i 12 -a 0 -x {4.0 0.0 5 ------- null}
+ -t 2.74850666666667 -s 2 -d 0 -p ack -e 40 -c 0 -i 12 -a 0 -x {4.0 0.0 5 ------- null}
- -t 2.74850666666667 -s 2 -d 0 -p ack -e 40 -c 0 -i 12 -a 0 -x {4.0 0.0 5 ------- null}
h -t 2.74850666666667 -s 2 -d 0 -p ack -e 40 -c 0 -i 12 -a 0 -x {4.0 0.0 -1 ------- null}
r -t 2.75861333333333 -s 2 -d 0 -p ack -e 40 -c 0 -i 12 -a 0 -x {4.0 0.0 5 ------- null}
+ -t 2.75861333333333 -s 0 -d 2 -p tcp -e 1040 -c 0 -i 18 -a 0 -x {0.0 4.0 11 ------- null}
- -t 2.75861333333333 -s 0 -d 2 -p tcp -e 1040 -c 0 -i 18 -a 0 -x {0.0 4.0 11 ------- null}
h -t 2.75861333333333 -s 0 -d 2 -p tcp -e 1040 -c 0 -i 18 -a 0 -x {0.0 4.0 -1 ------- null}
+ -t 2.75861333333333 -s 0 -d 2 -p tcp -e 1040 -c 0 -i 19 -a 0 -x {0.0 4.0 12 ------- null}
- -t 2.76138666666667 -s 0 -d 2 -p tcp -e 1040 -c 0 -i 19 -a 0 -x {0.0 4.0 12 ------- null}
h -t 2.76138666666667 -s 0 -d 2 -p tcp -e 1040 -c 0 -i 19 -a 0 -x {0.0 4.0 -1 ------- null}
r -t 2.77138666666667 -s 0 -d 2 -p tcp -e 1040 -c 0 -i 18 -a 0 -x {0.0 4.0 11 ------- null}
+ -t 2.77138666666667 -s 2 -d 1 -p tcp -e 1040 -c 0 -i 18 -a 0 -x {0.0 4.0 11 ------- null}
- -t 2.77138666666667 -s 2 -d 1 -p tcp -e 1040 -c 0 -i 18 -a 0 -x {0.0 4.0 11 ------- null}
h -t 2.77138666666667 -s 2 -d 1 -p tcp -e 1040 -c 0 -i 18 -a 0 -x {0.0 4.0 -1 ------- null}
r -t 2.77416 -s 0 -d 2 -p tcp -e 1040 -c 0 -i 19 -a 0 -x {0.0 4.0 12 ------- null}
+ -t 2.77416 -s 2 -d 1 -p tcp -e 1040 -c 0 -i 19 -a 0 -x {0.0 4.0 12 ------- null}
- -t 2.79305333333333 -s 2 -d 1 -p tcp -e 1040 -c 0 -i 19 -a 0 -x {0.0 4.0 12 ------- null}
h -t 2.79305333333333 -s 2 -d 1 -p tcp -e 1040 -c 0 -i 19 -a 0 -x {0.0 4.0 -1 ------- null}
r -t 2.81305333333333 -s 2 -d 1 -p tcp -e 1040 -c 0 -i 16 -a 0 -x {0.0 4.0 9 ------- null}
+ -t 2.81305333333333 -s 1 -d 3 -p tcp -e 1040 -c 0 -i 16 -a 0 -x {0.0 4.0 9 ------- null}
- -t 2.81305333333333 -s 1 -d 3 -p tcp -e 1040 -c 0 -i 14 -a 0 -x {0.0 4.0 8 ------- null}
h -t 2.81305333333333 -s 1 -d 3 -p tcp -e 1040 -c 0 -i 14 -a 0 -x {0.0 4.0 -1 ------- null}
r -t 2.83472 -s 2 -d 1 -p tcp -e 1040 -c 0 -i 17 -a 0 -x {0.0 4.0 10 ------- null}
+ -t 2.83472 -s 1 -d 3 -p tcp -e 1040 -c 0 -i 17 -a 0 -x {0.0 4.0 10 ------- null}
r -t 2.87850666666667 -s 1 -d 2 -p ack -e 40 -c 0 -i 15 -a 0 -x {4.0 0.0 6 ------- null}
+ -t 2.87850666666667 -s 2 -d 0 -p ack -e 40 -c 0 -i 15 -a 0 -x {4.0 0.0 6 ------- null}
- -t 2.87850666666667 -s 2 -d 0 -p ack -e 40 -c 0 -i 15 -a 0 -x {4.0 0.0 6 ------- null}
h -t 2.87850666666667 -s 2 -d 0 -p ack -e 40 -c 0 -i 15 -a 0 -x {4.0 0.0 -1 ------- null}
r -t 2.88861333333333 -s 2 -d 0 -p ack -e 40 -c 0 -i 15 -a 0 -x {4.0 0.0 6 ------- null}
+ -t 2.88861333333333 -s 0 -d 2 -p tcp -e 1040 -c 0 -i 20 -a 0 -x {0.0 4.0 13 ------- null}
- -t 2.88861333333333 -s 0 -d 2 -p tcp -e 1040 -c 0 -i 20 -a 0 -x {0.0 4.0 13 ------- null}
h -t 2.88861333333333 -s 0 -d 2 -p tcp -e 1040 -c 0 -i 20 -a 0 -x {0.0 4.0 -1 ------- null}
+ -t 2.88861333333333 -s 0 -d 2 -p tcp -e 1040 -c 0 -i 21 -a 0 -x {0.0 4.0 14 ------- null}
- -t 2.89138666666667 -s 0 -d 2 -p tcp -e 1040 -c 0 -i 21 -a 0 -x {0.0 4.0 14 ------- null}
h -t 2.89138666666667 -s 0 -d 2 -p tcp -e 1040 -c 0 -i 21 -a 0 -x {0.0 4.0 -1 ------- null}
r -t 2.90138666666667 -s 0 -d 2 -p tcp -e 1040 -c 0 -i 20 -a 0 -x {0.0 4.0 13 ------- null}
+ -t 2.90138666666667 -s 2 -d 1 -p tcp -e 1040 -c 0 -i 20 -a 0 -x {0.0 4.0 13 ------- null}
- -t 2.90138666666667 -s 2 -d 1 -p tcp -e 1040 -c 0 -i 20 -a 0 -x {0.0 4.0 13 ------- null}
h -t 2.90138666666667 -s 2 -d 1 -p tcp -e 1040 -c 0 -i 20 -a 0 -x {0.0 4.0 -1 ------- null}
r -t 2.90416 -s 0 -d 2 -p tcp -e 1040 -c 0 -i 21 -a 0 -x {0.0 4.0 14 ------- null}
+ -t 2.90416 -s 2 -d 1 -p tcp -e 1040 -c 0 -i 21 -a 0 -x {0.0 4.0 14 ------- null}
- -t 2.92305333333333 -s 2 -d 1 -p tcp -e 1040 -c 0 -i 21 -a 0 -x {0.0 4.0 14 ------- null}
h -t 2.92305333333333 -s 2 -d 1 -p tcp -e 1040 -c 0 -i 21 -a 0 -x {0.0 4.0 -1 ------- null}
r -t 2.94305333333333 -s 2 -d 1 -p tcp -e 1040 -c 0 -i 18 -a 0 -x {0.0 4.0 11 ------- null}
+ -t 2.94305333333333 -s 1 -d 3 -p tcp -e 1040 -c 0 -i 18 -a 0 -x {0.0 4.0 11 ------- null}
- -t 2.94305333333333 -s 1 -d 3 -p tcp -e 1040 -c 0 -i 16 -a 0 -x {0.0 4.0 9 ------- null}
h -t 2.94305333333333 -s 1 -d 3 -p tcp -e 1040 -c 0 -i 16 -a 0 -x {0.0 4.0 -1 ------- null}
r -t 2.96305333333333 -s 1 -d 3 -p tcp -e 1040 -c 0 -i 13 -a 0 -x {0.0 4.0 7 ------- null}
+ -t 2.96305333333333 -s 3 -d 4 -p tcp -e 1040 -c 0 -i 13 -a 0 -x {0.0 4.0 7 ------- null}
- -t 2.96305333333333 -s 3 -d 4 -p tcp -e 1040 -c 0 -i 13 -a 0 -x {0.0 4.0 7 ------- null}
h -t 2.96305333333333 -s 3 -d 4 -p tcp -e 1040 -c 0 -i 13 -a 0 -x {0.0 4.0 -1 ------- null}
r -t 2.96472 -s 2 -d 1 -p tcp -e 1040 -c 0 -i 19 -a 0 -x {0.0 4.0 12 ------- null}
+ -t 2.96472 -s 1 -d 3 -p tcp -e 1040 -c 0 -i 19 -a 0 -x {0.0 4.0 12 ------- null}
r -t 3.01582666666667 -s 3 -d 4 -p tcp -e 1040 -c 0 -i 13 -a 0 -x {0.0 4.0 7 ------- null}
+ -t 3.01582666666667 -s 4 -d 3 -p ack -e 40 -c 0 -i 22 -a 0 -x {4.0 0.0 7 ------- null}
- -t 3.01582666666667 -s 4 -d 3 -p ack -e 40 -c 0 -i 22 -a 0 -x {4.0 0.0 7 ------- null}
h -t 3.01582666666667 -s 4 -d 3 -p ack -e 40 -c 0 -i 22 -a 0 -x {4.0 0.0 -1 ------- null}
r -t 3.06593333333333 -s 4 -d 3 -p ack -e 40 -c 0 -i 22 -a 0 -x {4.0 0.0 7 ------- null}
+ -t 3.06593333333333 -s 3 -d 1 -p ack -e 40 -c 0 -i 22 -a 0 -x {4.0 0.0 7 ------- null}
- -t 3.06593333333333 -s 3 -d 1 -p ack -e 40 -c 0 -i 22 -a 0 -x {4.0 0.0 7 ------- null}
h -t 3.06593333333333 -s 3 -d 1 -p ack -e 40 -c 0 -i 22 -a 0 -x {4.0 0.0 -1 ------- null}
r -t 3.07305333333333 -s 2 -d 1 -p tcp -e 1040 -c 0 -i 20 -a 0 -x {0.0 4.0 13 ------- null}
+ -t 3.07305333333333 -s 1 -d 3 -p tcp -e 1040 -c 0 -i 20 -a 0 -x {0.0 4.0 13 ------- null}
- -t 3.07305333333333 -s 1 -d 3 -p tcp -e 1040 -c 0 -i 17 -a 0 -x {0.0 4.0 10 ------- null}
h -t 3.07305333333333 -s 1 -d 3 -p tcp -e 1040 -c 0 -i 17 -a 0 -x {0.0 4.0 -1 ------- null}
r -t 3.09305333333333 -s 1 -d 3 -p tcp -e 1040 -c 0 -i 14 -a 0 -x {0.0 4.0 8 ------- null}
+ -t 3.09305333333333 -s 3 -d 4 -p tcp -e 1040 -c 0 -i 14 -a 0 -x {0.0 4.0 8 ------- null}
- -t 3.09305333333333 -s 3 -d 4 -p tcp -e 1040 -c 0 -i 14 -a 0 -x {0.0 4.0 8 ------- null}
h -t 3.09305333333333 -s 3 -d 4 -p tcp -e 1040 -c 0 -i 14 -a 0 -x {0.0 4.0 -1 ------- null}
r -t 3.09472 -s 2 -d 1 -p tcp -e 1040 -c 0 -i 21 -a 0 -x {0.0 4.0 14 ------- null}
+ -t 3.09472 -s 1 -d 3 -p tcp -e 1040 -c 0 -i 21 -a 0 -x {0.0 4.0 14 ------- null}
r -t 3.14582666666667 -s 3 -d 4 -p tcp -e 1040 -c 0 -i 14 -a 0 -x {0.0 4.0 8 ------- null}
+ -t 3.14582666666667 -s 4 -d 3 -p ack -e 40 -c 0 -i 23 -a 0 -x {4.0 0.0 8 ------- null}
- -t 3.14582666666667 -s 4 -d 3 -p ack -e 40 -c 0 -i 23 -a 0 -x {4.0 0.0 8 ------- null}
h -t 3.14582666666667 -s 4 -d 3 -p ack -e 40 -c 0 -i 23 -a 0 -x {4.0 0.0 -1 ------- null}
r -t 3.19593333333333 -s 4 -d 3 -p ack -e 40 -c 0 -i 23 -a 0 -x {4.0 0.0 8 ------- null}
+ -t 3.19593333333333 -s 3 -d 1 -p ack -e 40 -c 0 -i 23 -a 0 -x {4.0 0.0 8 ------- null}
- -t 3.19593333333333 -s 3 -d 1 -p ack -e 40 -c 0 -i 23 -a 0 -x {4.0 0.0 8 ------- null}